# vtk DataFile Version 1.0
...
ASCII

DATASET POLYDATA
POINTS 69326 float
2550.9458 1286.0192 1346.0698
2550.96 1286.0192 1346.0554
2550.9751 1286.0203 1346.076
4692.9956 1327.7954 2336.3191
4693.0161 1327.7952 2336.3
4694.0991 1330.6002 2339.7021
4694.1196 1330.6005 2339.6824
14752.376 1175.5183 9439.4209
14752.397 1175.5188 9439.3994
14751.862 1167.1102 9429.0908
14751.884 1167.1105 9429.0693
14752.365 1175.5183 9439.3896
14751.895 1167.1111 9429.1025
1615.6646 1294.0052 2671.3152
1615.6348 1294.0035 2671.3357
1585.4764 1309.9797 2639.6248
1585.5106 1309.9791 2639.6091
4693.0288 1327.796 2336.3403
13537.41 1156.3252 10727.07
13537.446 1156.3268 10727.032
13554.21 1187.5397 10748.883
13554.244 1187.5389 10748.843
13554.178 1187.5399 10748.814
3813.6553 1289.7769 219.38376
3813.7214 1289.7782 219.34254
10718.96 1338.7441 5153.2612
10719.023 1338.7452 5153.2075
10724.346 1324.6851 5158.8052
10724.417 1324.684 5158.7593
2453.5393 1308.067 2028.1029
2453.6108 1308.0677 2028.0503
3813.7661 1289.7789 219.42082
2448.678 1313.1945 2021.1222
2448.7429 1313.2024 2021.0596
10724.426 1324.6926 5158.8491
10732.72 1325.1017 5151.8423
10732.82 1325.1307 5151.8721
10732.803 1325.1188 5151.7578
10727.233 1339.0204 5146.2046
10727.323 1339.0247 5146.127
4151.5947 1350.1493 7769.5298
4151.4971 1350.1479 7769.5981
4162.9551 1371.4346 7786.5386
4162.8599 1371.4381 7786.6108
12312.873 1326.4434 3097.2388
12312.979 1326.441 3097.1682
11718.92 1176.2461 12120.865
11719.024 1176.2408 12120.79
11723.933 1185.2302 12128.522
11724.041 1185.2314 12128.452
12303.187 1367.9873 3071.208
12303.293 1367.9896 3071.135
12097.315 1202.6298 7895.9248
12097.406 1202.6338 7895.8306
12120.906 1245.576 7927.3193
12120.994 1245.5778 7927.2207
11468.028 1181.8843 12273.754
11468.152 1181.8799 12273.697
11467.036 1180.1495 12272.1
11467.164 1180.1516 12272.049
4151.6206 1350.1517 7769.6675
10476.457 1227.179 9104.0361
10476.589 1227.1816 9103.9814
11719.044 1176.2419 12120.936
1257.5533 1368.5739 10250.874
1257.4341 1368.5737 10250.953
10476.655 1230.3127 9108.8555
10476.787 1230.3118 9108.7949
12312.852 1326.4438 3097.095
1255.4768 1348.3944 10232.659
1255.3586 1348.3936 10232.744
11723.912 1185.2302 12128.375
12120.85 1245.5803 7927.1733
4151.5327 1350.151 7769.7915
11467.047 1180.1508 12271.947
10732.503 1325.0073 5152.1011
10732.639 1325.0718 5152.1372
10732.61 1325.056 5151.9712
10732.751 1325.1075 5152.0103
12303.317 1367.9795 3071.2964
1255.4977 1348.3938 10232.826
4151.3608 1350.1456 7769.6929
4162.7275 1371.443 7786.7119
10727.106 1339.014 5146.3145
10726.979 1339.0062 5146.4253
10726.935 1339.0105 5146.2432
10727.063 1339.0154 5146.1333
9529.9141 1348.5521 3096.5461
9530.0488 1348.5538 3096.4431
9512.6172 1309.0299 3070.6858
9512.75 1309.0271 3070.5793
10186.116 1319.6534 2608.9028
10186.275 1319.6611 2608.8049
10193.984 1337.7883 2622.1079
10194.136 1337.7816 2621.9976
6765.6362 1326.603 5423.2734
6765.7881 1326.6041 5423.1411
6780.1948 1353.8157 5440.4673
6780.3438 1353.811 5440.3315
9512.6797 1309.043 3070.9482
9512.7998 1309.0387 3070.7839
11731.303 1333.7449 1198.4662
11731.446 1333.7448 1198.3206
11740.405 1366.1626 1222.7065
11740.549 1366.1632 1222.5618
11731.53 1333.7498 1198.5608
11731.68 1333.75 1198.4198
10476.675 1230.3146 9108.6221
10476.267 1227.1771 9104.1182
10476.468 1230.3163 9108.6143
1449.2748 1363.2593 4773.1519
1449.0876 1363.2642 4773.2412
11740.325 1366.16 1222.4778
11740.468 1366.1604 1222.3274
11740.695 1366.1637 1222.4138
11731.593 1333.7443 1198.1714
10476.464 1230.3142 9108.9434
1439.2985 1322.7826 4747.8525
1439.111 1322.7813 4747.9531
317.20377 1279.7042 3423.1501
317.04764 1279.7024 3423.2947
10193.953 1337.7965 2621.8882
6779.9526 1353.8188 5440.3647
6780.1284 1353.813 5440.2402
6765.7085 1326.6029 5423.5264
6765.854 1326.604 5423.3672
9529.7441 1348.5549 3096.6816
9512.4453 1309.0291 3070.8193
6765.4653 1326.6017 5423.4219
6780.0283 1353.822 5440.6206
10882.469 1341.8865 4981.5425
10882.616 1341.8882 4981.3623
3965.9727 1345.6075 7899.9893
3965.7788 1345.6022 7900.1201
10880.459 1346.5944 4979.5244
10880.604 1346.6146 4979.3408
6542.3843 1316.6725 11303.391
6542.2212 1316.6785 11303.564
3979.7092 1372.5983 7921.3652
3979.5342 1372.5975 7921.5269
6552.0527 1336.4454 11312.401
6551.8677 1336.4349 11312.554
1629.9874 1328.5668 4615.9199
1629.7719 1328.5601 4616.0322
3880.3547 1290.8291 152.74461
3880.5188 1290.8394 152.56244
1119.6969 1337.0979 3063.3484
1119.5293 1337.115 3063.5349
1633.2744 1354.0963 4635.1841
1633.0702 1354.1185 4635.3345
14752.009 1175.5104 9439.7773
14752.192 1175.5145 9439.5996
14751.769 1167.111 9429.5537
14751.952 1167.113 9429.373
14751.918 1175.5117 9439.5049
14752.102 1175.5145 9439.3252
14751.677 1167.1069 9429.2725
10880.711 1346.6057 4979.5879
13676.568 1254.121 6308.8003
13676.786 1254.1288 6308.6572
14751.492 1167.1067 9429.458
14685.139 1174.4065 9505.2031
14685.327 1174.411 9505.0186
1439.3198 1322.7889 4748.1157
13658.976 1220.1989 6277.106
13659.182 1220.1973 6276.9365
14684.269 1166.8289 9496.4287
14684.458 1166.8296 9496.2402
3979.4714 1372.601 7921.2334
2453.3213 1308.0616 2028.2694
2448.469 1313.179 2021.3029
1178.2219 1291.882 3135.1482
1178.1008 1291.882 3135.3997
10476.556 1227.1667 9104.2979
5020.8784 1316.723 1947.8654
5021.0908 1316.7383 1947.6759
1633.035 1354.1179 4635.0205
5032.1704 1336.5758 1965.3994
5032.3682 1336.5734 1965.1827
3880.6907 1290.8413 152.80212
11467.187 1180.1531 12271.686
14685.045 1174.4095 9504.9209
5908.4502 1332.4421 1210.4238
5908.6777 1332.4338 1210.2299
5902.1421 1324.434 1203.5171
5902.3696 1324.4318 1203.3229
14684.553 1166.8323 9496.5283
11466.758 1180.1497 12271.858
10726.635 1339.0051 5146.2817
10732.557 1325.0483 5152.4292
1686.2478 1284.3835 2088.3159
1686.4976 1284.3845 2088.1294
10732.276 1324.9344 5152.3521
8863.7148 1349.0052 3571.238
8863.9795 1349.0071 3571.0698
4748.3604 1326.2706 7292.019
4748.0986 1326.2847 7292.1919
8840.4258 1303.3098 3539.4197
8840.6826 1303.3253 3539.2395
2453.2644 1308.0608 2027.9504
4768.8486 1369.4882 7320.1426
4769.1182 1369.4888 7319.979
8863.4482 1349.0037 3571.4082
8863.1064 1349.0087 3571.1824
8863.374 1349.0107 3571.0127
8839.9072 1303.2789 3539.7839
8840.166 1303.2939 3539.6016
8863.1807 1349.002 3571.5784
9422.2969 1235.7489 9287.5469
9422.5654 1235.7455 9287.373
11939.877 1329.9165 3427.1599
11940.059 1329.9156 3426.8945
10724.995 1324.6705 5158.3877
10725.037 1324.7153 5158.7036
11468.445 1181.8696 12273.563
11468.738 1181.8573 12273.428
9419.3232 1226.8713 9282.1152
9419.584 1226.8444 9281.9268
11468.423 1181.8708 12273.926
11468.719 1181.8663 12273.797
11467.465 1180.156 12271.93
9238.0889 1353.0114 6559.1138
9238.3203 1353.0054 6558.8872
11467.731 1181.8912 12273.885
11467.489 1180.1569 12271.566
11467.768 1180.1621 12271.812
11466.733 1180.146 12272.221
11932.784 1351.8674 3415.2771
11932.963 1351.8792 3415.0037
9242.8389 1331.6506 6581.896
9243.0713 1331.6448 6581.6538
8840.2012 1303.2991 3539.9448
1585.3751 1310.0278 2639.9421
10726.724 1338.9949 5146.6455
10719.281 1338.7504 5152.9897
10719.537 1338.761 5152.7705
10724.765 1324.7151 5158.9063
10724.707 1324.6743 5158.5742
5032.0459 1336.5774 1965.0688
5032.2354 1336.5753 1964.7869
5021.3467 1316.7556 1947.4464
1585.0533 1309.9867 2639.8228
1584.9628 1310.0349 2640.1514
5021.6001 1316.7722 1947.2128
5032.4824 1336.5753 1964.5382
734.03058 1349.7239 3454.394
733.77448 1349.7194 3454.6365
5032.6069 1336.5709 1964.9219
5032.8477 1336.5713 1964.6637
2448.7942 1313.2104 2021.4561
5902.4619 1324.437 1203.6708
10719.206 1338.7582 5152.6406
9419.5957 1226.8523 9282.3457
14213.366 1166.9862 9948.501
14213.623 1166.9912 9948.2471
1584.6249 1309.9963 2640.0156
3596.1479 1282.2729 348.29126
3596.4512 1282.2107 348.09369
11939.693 1329.9197 3426.8398
809.02686 1290.1884 3585.5989
808.74646 1290.1835 3585.8403
11933.151 1351.8721 3415.3303
13676.484 1254.1299 6308.439
14216.564 1175.1827 9956.1074
14216.81 1175.1707 9955.8291
10718.882 1338.7528 5152.8276
9238.4482 1352.9951 6559.2397
4768.7954 1369.4927 7319.77
3979.1091 1372.6007 7921.3408
3965.4653 1345.5953 7900.335
3965.1521 1345.5886 7900.5493
3979.2502 1372.5963 7921.7891
3978.9663 1372.5948 7922.0508
3978.8308 1372.5992 7921.6108
5296.1025 1317.798 1702.1539
5296.416 1317.8079 1701.9258
1686.5912 1284.3909 2088.5066
5314.2495 1342.5977 1724.348
5314.5581 1342.6056 1724.1106
10881.076 1346.6292 4979.4526
5021.7207 1316.762 1947.5861
14640.18 1150.6882 13781.779
14640.503 1150.6709 13781.554
14635.656 1118.1329 13746.479
14635.99 1118.156 13746.271
7062.6357 1309.1768 11021.149
7062.9961 1309.1503 11020.991
14628.282 1209.951 5564.1245
14628.657 1209.9775 5563.999
4748.4331 1326.2957 7292.418
11466.352 1180.1471 12271.892
13605.593 1158.5825 10652.756
13605.872 1158.5981 10652.459
13517.668 1219.2416 6425.6216
13517.936 1219.248 6425.3135
13620.153 1186.1182 10672.195
13620.42 1186.1118 10671.884
14628.738 1214.0 5569.3071
14629.107 1213.9833 5569.1265
13534.616 1253.7925 6453.0693
13534.873 1253.7749 6452.7485
14216.416 1175.1837 9955.7109
1044.9159 1349.0065 10383.646
1044.5934 1349.0093 10383.902
7045.2212 1274.4359 11000.63
7045.6187 1274.4303 11000.513
317.34738 1279.7113 3423.5852
3965.5791 1345.6073 7900.7397
1046.4669 1370.8856 10405.574
1046.1438 1370.8929 10405.845
1630.7413 1328.6011 4615.5361
1630.3641 1328.5817 4615.7266
7800.0674 1269.339 10483.31
7799.7837 1269.3325 10483.625
10880.874 1346.6339 4979.0137
10882.886 1341.8923 4981.0337
10883.155 1341.8975 4980.7046
10881.341 1346.6462 4979.1187
10881.141 1346.663 4978.6821
12323.493 1207.3257 7693.0293
12323.825 1207.3267 7692.7573
1633.6066 1354.0696 4634.4111
1633.2441 1354.1002 4634.6396
7798.3911 1262.1614 10480.849
7798.1187 1262.1755 10481.181
12348.541 1247.0018 7724.5396
12348.887 1247.0017 7724.2837
1439.15 1322.7891 4748.5112
5908.3032 1332.4484 1210.0156
1586.0601 1309.9717 2639.3472
1586.4382 1310.026 2639.551
6437.8833 1283.4117 11869.806
6438.2793 1283.469 11869.639
1347.0826 1365.7416 4817.9795
[...]
POINT_DATA 69326
SCALARS temp int
LOOKUP_TABLE default
2801
2800
2801
2594
2595
2530
2531
3506
3507
3520
3519
3505
3518
3339
3340
2824
2825
2595
3288
3289
3273
3274
3275
2602
2601
1423
1422
1951
1952
3233
3232
2602
2947
2948
1953
1968
1967
1968
1409
1408
3667
3666
2898
2899
1111
1110
3009
3010
2998
2999
1119
1118
2952
2953
2952
2953
2955
2956
2945
2946
3668
2741
2742
3010
3223
3224
2741
2742
1112
3345
3344
2999
2954
3669
2946
1965
1964
1965
1966
1120
3345
3665
2900
1410
1411
1411
1410
2268
2267
2268
2267
2185
2184
2185
2184
3972
3973
2593
2592
2270
2269
1993
1992
1993
1992
1994
1995
2743
2740
2744
2594
2595
1993
1994
1991
1991
2740
2594
2595
3199
3200
2185
2594
2593
3975
3974
2269
2269
3971
2594
1375
1374
3636
3635
2001
2002
130
131
2929
2930
222
221
2554
2555
2582
2581
2740
2739
2554
2555
3508
3507
3516
3517
3503
3504
3521
2002
3215
3216
3522
3486
3487
2595
3212
3213
3499
3500
2930
3234
2946
3409
3410
2742
2679
2680
2555
2615
2616
2582
2947
3487
2807
2808
2864
2865
3500
2947
1412
1963
2961
2960
1964
2333
2332
3729
3728
2333
2332
3234
2837
2836
2334
2336
2335
2335
2334
2335
610
611
1178
1177
1956
1955
2957
2958
262
263
2957
2958
2947
1730
1731
2954
2948
2948
2944
1186
1185
1644
1643
2336
2823
1412
1421
1420
1954
1953
2617
2618
2681
2822
2821
2682
2619
2673
2672
2617
2618
2948
2865
1419
263
3434
3435
2820
2637
2636
1179
3476
3477
1187
3216
3421
3422
1420
1732
2838
2931
3634
3633
2931
2932
2932
2733
2734
2961
2671
2672
2003
2683
3541
3540
3544
3545
298
299
3357
3358
3729
2948
3301
3302
3180
3181
3286
3287
3346
3347
3183
3184
3423
3317
3316
54
53
3201
3635
3251
3252
2552
2553
400
399
2003
1373
1372
2004
2004
2991
2992
2557
2556
52
51
2991
2992
2596
2809
2826
2827
2308
2309
2612
2613
3023
3022
1188
3303
3304
1180
2839
2553
2612
2613
2952
2953
2552
2953
2954
2942
2943
2657
2656
2553
2949
3341
3342
3300
3730
2556
3285
2596
2597
2597
2598
1425
1424
2301
2300
1089
1088
2301
2300
3539
3347
3502
1949
1950
1955
1954
2597
53
2596
2597
3252
400
1374
1425
3515
3492
3493
1097
1096
2331
2331
3023
2309
1176
3730
2672
3317
3185
1184
2835
2556
2557
2556
2557
1733
2828
3005
3006
2556
1733
2615
2614
3493
3494
2557
3509
3181
2557
2962
2739
2740
3523
2596
2597
2610
2611
2655
2545
2546
2657
2658
2654
2738
1098
2532
2533
2517
2516
2738
2739
2616
2615
2596
2597
3217
3216
2963
2964
3011
2616
2614
2615
2611
1089
2610
3318
2301
1885
1884
2646
2647
2646
2647
2646
2647
2645
2658
2659
2571
2570
3994
3995
2648
2647
2614
2615
2614
2615
2645
2959
1732
1733
2958
1734
3495
3494
1491
1490
3636
2963
3000
3000
3001
3012
3011
3253
3001
3012
2992
2612
1728
1729
2746
2745
1734
2546
2673
2310
3494
3495
2671
2670
2888
2887
1642
1641
3005
3006
3004
2337
3005
3006
3004
3133
3134
2418
2417
1645
1644
1645
1646
3235
2910
2911
2959
3668
3669
2949
3670
3669
2419
2897
2898
2897
2896
3024
2909
2647
3080
3081
2912
2911
3495
3490
3491
3337
3338
2649
2732
2731
2674
2669
2670
1090
2962
1962
3478
3435
3434
3479
2533
2954
2955
2954
2955
2946
2945
3318
1418
3006
3007
3237
3238
1413
2955
2956
3319
2954
2955
3067
3068
2740
2741
3254
1963
3319
2735
2635
3250
2740
2741
1883
2648
2673
3249
1956
2643
2644
3234
3235
2100
2099
2116
2115
2644
2963
2962
2643
2650
2944
2945
2963
1099
2337
1090
1646
3235
3236
3339
3338
3236
2945
1099
2864
2863
2837
2838
2634
2968
2969
2958
2959
2672
2491
2490
1957
2251
2250
2251
2250
2659
2838
1491
2336
2336
3478
3479
2571
2570
2572
2684
2310
2311
3846
3845
2311
2719
2720
3021
3020
3025
1884
2620
2959
2752
2753
1090
3488
2912
3477
2101
2100
3501
2949
3007
1492
2118
2117
3294
3295
3148
3149
2743
3133
3134
2854
2853
296
297
298
2636
2637
3206
3207
3206
3207
1087
1086
1799
1800
1109
1108
1091
1098
1964
1963
3347
3346
1113
1114
2946
2947
3347
3346
2631
2632
2993
3222
3636
1413
1421
1575
1574
3221
2302
2631
2632
2993
2102
2101
2739
2102
1117
1116
2970
2993
3844
2118
2117
2739
2721
1121
1122
2738
2737
2119
2593
2592
2658
2659
2733
3538
3041
3042
2753
3488
56
55
1100
2547
2683
2839
2840
2841
1095
1094
2842
2658
2659
2782
2783
2784
2840
2841
2852
3238
2889
2890
2257
2256
1885
2238
2237
2416
2415
2418
2419
2840
2841
56
57
3006
2785
3501
2771
2772
2913
2912
3081
2913
2592
2593
2712
2713
54
2715
2714
2491
2182
2181
2597
2596
401
2619
2971
2897
2898
2199
2198
2933
1964
1963
1489
2819
3301
3302
3488
3303
1181
2684
2948
2944
1189
2943
3379
3380
2571
2299
2298
2303
2299
2298
2300
2301
3366
3367
2842
3501
2547
2548
2251
3348
2548
2949
2515
2514
3141
3140
3116
3117
3509
3510
2774
2773
2660
2769
2770
3007
3381
3382
2710
2711
2891
2772
2716
2886
2885
2660
2661
3380
3381
3502
3503
2851
2660
3043
3044
3140
3139
3039
3040
3380
3116
3117
2864
1046
1045
3305
3304
3543
3222
3223
3355
3356
2746
2745
3484
3485
2865
3542
3542
3543
3489
2744
3546
3545
3632
3411
3412
3480
3481
3537
2736
3497
3498
3502
2721
2720
3411
3467
3468
3412
1375
3142
3143
2970
2603
2602
2972
2971
2962
2961
2960
2961
3008
3007
3208
2707
2708
3858
3857
2005
2516
2933
2855
3356
2554
3349
3845
2744
2709
2708
3325
3324
3344
3345
1054
1053
2784
3253
3859
3858
2914
2915
2744
2924
2925
402
401
402
2573
3325
3324
3859
2706
2632
3143
55
3527
3528
54
53
2717
2716
1175
1182
3144
2745
2648
1174
2743
2744
2965
3860
2818
401
3207
2662
2648
2632
1183
2710
3292
3293
2954
3045
3044
3296
3297
1182
3343
3004
1190
3008
3003
3138
3861
3860
129
2705
2704
1426
2711
3296
3295
2950
128
3520
3521
3861
2852
2853
224
223
1800
2865
224
225
2866
1575
2866
3012
3011
3134
2996
2997
2581
2580
2855
2854
3007
3008
3002
3001
3318
3529
1113
1112
1114
1113
3530
3174
3175
2853
3195
3196
3180
3181
54
2856
2857
2558
3235
3525
3524
1123
1122
3348
1956
1014
1015
1964
2661
2662
3511
3306
1121
1120
3298
2661
2662
2663
2838
3299
3300
2898
3182
2594
2854
3522
3008
2492
2934
2935
2661
2662
2924
2925
3177
3176
1947
1946
2926
1371
2551
2005
3215
3381
2965
1947
1946
3504
2574
2569
3996
3997
2598
3113
3114
2568
2739
2843
2599
3119
3118
2558
2580
2183
3186
3319
3523
3315
2915
2949
2950
3314
2948
2947
3231
3230
2948
2947
3254
2821
2822
2764
2765
2579
3512
2951
3187
2950
2738
2721
1065
1064
3526
3253
3254
2950
3185
3186
3182
3183
3300
3203
3204
3485
3484
2738
3183
2851
2648
2649
2957
2956
2951
2551
2950
3505
2649
2648
2649
2649
3505
130
3118
3119
3227
3228
3359
3360
2951
2854
1882
2197
2196
2941
3481
1348
1347
3512
3365
3364
402
398
397
3359
3360
3218
2028
2029
55
2675
2674
3224
3225
50
49
2675
2674
2558
2572
2836
3343
2742
2741
2433
2432
2615
2616
2754
3344
3345
1492
3121
3120
2741
1377
1376
3120
1378
1379
2743
2744
2926
2925
2435
2434
2004
2003
3208
2000
3118
3119
2551
2552
2668
2667
2598
2837
2838
1999
2718
2719
3848
3847
2838
2839
3349
2153
2154
3042
3043
2927
1223
1222
2718
2936
2935
2195
2717
2613
2705
2704
3348
3082
3083
2916
1426
2844
2184
3357
3358
2843
2844
2180
2179
2786
2787
3349
3501
2829
1948
2786
2787
2800
2799
2292
2293
2601
2602
3511
2799
2798
3038
3039
3380
3381
2598
2154
2155
2493
2791
2792
2489
2488
3209
1223
1224
2185
2839
2760
2761
3504
2625
2626
2492
2699
2698
2994
1947
2819
2820
3082
2889
3228
3229
2856
2855
2534
3217
3040
2155
3218
3217
3218
1221
1220
2156
3177
2156
1225
2603
3479
3478
1073
1072
2839
2840
2803
2802
3514
3530
3508
3232
3231
2616
3214
3215
2891
2890
3228
3229
3040
3039
3475
2933
2923
3194
3195
2937
3227
3228
2922
3065
3064
2932
2927
3214
3474
3215
3513
2823
3178
2802
2801
2258
2239
2598
2890
3231
2891
3501
2553
2554
3009
3197
3198
2558
1948
3507
3013
3506
3326
3381
3382
1735
1887
1886
1349
3201
2660
3307
3308
1881
3322
3323
3500
2857
3202
2292
2293
3346
3347
2659
3343
3342
2754
2155
3368
3369
3041
1224
2290
2291
302
301
3002
3079
3225
3229
3044
3196
3197
2573
3040
3041
3226
3205
3408
2994
3407
3230
2995
2917
2913
2569
2568
2928
2912
2994
3008
2994
2995
2718
2717
2995
2995
1493
2923
1646
3078
2922
2892
3382
1493
1492
2673
3083
301
300
2604
2638
3041
3042
1647
2029
2558
2908
2909
1979
1978
2755
3997
2600
3327
1735
2629
2628
2252
2754
2755
3510
2584
2583
2835
3208
2617
2617
3010
2605
133
134
2856
3208
132
3066
3067
2583
133
3175
1968
1977
3849
3066
2700
220
219
3065
2701
2722
2830
2834
2833
2624
1979
1978
2623
2927
2952
2916
3344
3134
3135
2584
3365
2763
3524
2553
2554
2492
1979
1980
2493
2493
3485
3486
2995
2734
2598
3235
3234
2722
1980
1981
2898
2200
3209
2609
1057
1056
2723
1048
1047
2555
2739
3007
2618
2619
2747
2723
3008
2617
2618
3007
3008
3007
2434
3008
2534
3323
3324
3202
3203
1047
2435
3233
2737
2294
2295
1977
3037
1180
3326
3358
3327
2737
3066
3067
3310
3309
2606
3036
2572
1048
2964
3043
52
51
2639
2653
3040
3041
3671
2152
3067
3066
3328
1224
1225
2616
1885
2253
2609
2249
2249
2248
2251
2250
3053
3054
3218
3197
2248
3326
2962
3182
3327
2964
2963
2156
3496
220
2202
2201
2946
2157
3067
3066
2151
2150
1188
3208
1179
1180
1225
1181
1226
1226
2184
2773
3320
3119
2660
2719
2718
1965
2616
3067
3040
2825
2824
2599
2598
2962
2963
1189
1187
3008
3009
1056
1055
3068
3225
3226
2604
3009
2957
1734
2678
2719
2677
1017
1016
1188
3638
3637
3230
3013
3002
3018
3019
2927
2928
2702
2932
2931
2722
2761
3365
3366
2957
2605
2824
3309
1396
1395
3311
3310
3115
1493
2600
2599
2436
3324
3255
1727
3041
1969
3325
3365
3366
2431
2430
3116
3325
2956
2627
3247
3248
3006
3228
2433
2432
2721
2720
2295
2840
299
3370
3247
3248
1055
2613
2614
1970
2669
2793
3487
2185
2802
2803
2964
2736
2737
2964
2737
2738
2651
2370
2369
3483
2965
3482
3496
1980
1981
1948
2715
2619
2618
2675
2183
2184
2850
3237
2203
2649
2674
2338
2372
2371
2849
3043
3044
1640
3527
2573
2572
2971
3114
3115
2675
1407
1406
3020
3021
1949
440
439
3226
2056
2055
2802
2803
2706
1965
2707
2960
92
91
2573
1970
1965
3020
3021
3209
2312
3670
3278
3279
3225
2056
2055
2750
2751
3120
1647
2857
1961
2895
3482
3084
3085
3054
3055
3428
3429
2916
2917
3114
3115
2950
3026
2917
2719
52
2928
2926
2927
3489
2755
3065
3066
612
613
2730
3731
2964
2302
3359
3466
3204
3205
3084
3085
3204
3205
1044
1043
3178
2668
264
3210
2240
3336
3480
264
265
265
2575
2574
2236
3261
3262
2855
3063
1962
3261
3262
2255
3024
2865
2926
1981
3064
1886
1887
1886
3732
3731
3732
2103
261
262
609
609
610
2906
2907
2633
2910
2909
608
2936
1982
2834
2637
2638
2841
3367
2833
2956
260
261
1417
2303
2302
2303
1494
1488
3479
2302
2633
1487
2956
2303
3320
1017
2899
1414
3328
1052
1051
2862
2861
2866
1958
1957
3348
2716
3248
2773
2774
3199
2714
2715
2642
2774
1034
1033
3198
3045
2642
2964
2120
2966
2967
2972
2370
2371
3067
3068
3069
2957
3237
3276
3277
3526
3527
3200
3214
3286
3287
2956
3213
2056
2057
2943
3277
3276
1115
2057
2058
3249
3250
3249
3250
1123
1101
3272
2373
2374
2435
3281
3280
3359
1092
3271
3305
3223
2623
2622
3055
3219
3218
3339
2577
2578
3342
3343
3942
3943
2914
3526
2636
2637
1801
3525
3055
3148
3149
2573
2574
3345
3346
3056
2842
3279
2804
3056
2310
3136
3137
1074
3139
3140
3138
3139
2230
2231
57
2577
2578
1576
1950
2254
2434
1948
2785
3210
3211
2843
1949
2577
2578
3082
2213
2214
92
1979
1399
1400
1397
3009
3540
3541
1398
3163
3164
2004
2003
3360
2899
1949
1983
1408
2337
1949
1948
1056
2900
2337
2671
2672
1978
2420
3083
3046
3045
3082
3083
3356
3355
2685
2312
3005
3006
2212
1091
3639
2307
2900
2639
3068
3067
3519
3019
3024
1067
1066
2338
2679
2762
3063
3541
3290
3289
3268
3269
2576
3138
2960
613
2595
3253
3254
2671
2672
3542
3413
3408
3346
3347
2580
2579
2575
2576
3226
2841
3052
2054
2621
2575
1980
2004
2003
3051
2804
2368
2633
2634
3546
3547
2707
2950
3292
3291
2576
2805
2370
3306
2740
3299
2634
3436
3437
3298
2639
2575
2576
2054
3292
3291
3219
2633
2517
2634
2634
2638
3056
2777
2778
3141
3291
3290
3283
3284
3287
3286
2549
3528
3004
2966
3186
3251
3249
3250
2575
2567
2568
3183
3182
3069
337
338
3070
2546
2545
3231
3251
3359
1966
3249
3250
3360
2567
2568
3192
3193
295
2856
2640
3229
17
16
442
441
2839
3424
2840
3425
2581
2805
93
2709
3360
3480
3042
3041
3518
3423
3424
1981
3047
2598
3846
2840
2913
2841
2057
3198
3199
2125
2126
1024
1025
2805
3199
3187
3183
3184
3186
3185
3178
3179
2302
2374
3196
3195
3181
3182
1251
1250
2849
2850
1057
1100
2371
3367
2434
2435
2927
2926
2937
2936
2436
1107
3135
2937
1085
3195
3196
3348
2927
3045
3046
2722
3176
2670
2669
2005
2004
2436
2127
2126
1421
2740
2437
2437
2436
2058
1422
2927
2926
1414
2840
2005
3859
1801
1802
2717
3179
2006
2103
3220
2745
1076
1075
1966
1967
3178
3179
2973
2974
3068
1577
1802
1115
2006
2005
1092
3044
2504
2505
1350
2505
2504
1092
1091
2119
3045
3496
2916
2917
2899
2973
1573
3536
1572
2775
2841
2840
2591
2839
3490
2838
3201
1967
1966
2900
2633
2304
2579
2718
2805
3212
1252
1251
2303
1025
2963
2742
2743
3263
2580
2030
3200
3201
2896
2005
2006
57
2840
2841
2895
2957
2973
2972
3196
2006
2683
2684
1093
2123
2124
2128
3197
3357
2962
2736
3220
3487
3486
1074
2684
3144
3547
1252
2838
3363
3364
2506
2505
13
14
1253
361
362
2715
1068
1253
2414
1075
2714
2781
3503
2071
2070
3664
3663
3670
3671
3229
2058
2914
2704
2705
2899
2900
2990
2901
2719
2902
2591
3020
3021
2059
2703
2702
3637
2990
3152
3153
2624
2186
2863
2864
2910
2911
2620
2187
2187
2186
3199
3200
2186
2187
2232
2233
3149
3150
56
2572
2779
1101
3007
2723
2934
2673
2674
3136
1980
2804
2863
2864
3226
2949
1099
2918
2919
3150
3151
3153
3152
1981
2504
2503
131
3135
3136
1100
3230
3231
2215
1966
2768
2769
1995
1994
2839
2605
2676
1967
403
438
3291
3306
2628
2994
2993
437
1995
1994
443
3502
1981
94
90
89
3096
3097
2058
2057
1995
1994
3232
3489
1996
1995
2772
2773
2843
2058
2789
2788
2768
2769
2002
3350
3136
3487
3486
2001
2942
3292
3096
3097
2968
2967
2841
2840
2547
2819
2820
2804
2372
2371
2579
2372
2505
2989
2988
2737
2505
3150
3151
2506
3230
3231
3288
2995
2817
1018
1981
1980
2507
2506
2738
2739
2213
2214
1191
2989
2990
2297
2375
3293
2988
2989
2741
3325
3326
2057
2373
2374
2058
2737
225
3221
2736
1982
2216
3297
3381
3382
2736
2507
3860
17
2744
3230
3231
2297
3856
2059
2635
3340
3341
3547
2710
3080
3081
2549
2709
3002
3003
3855
2710
3843
3847
3008
1967
1183
3002
3003
3842
2420
2801
2421
2800
2722
2422
2423
2723
3003
3004
3438
2742
2918
2919
2743
2005
2006
2964
2914
2742
2806
2920
1045
2907
2908
2743
3220
3219
2744
2743
633
634
3214
3213
1995
1996
2839
2838
1990
2724
2723
2960
2961
3116
2579
2969
2925
2924
2053
2052
2513
2768
285
286
2835
2836
1989
3116
2975
2976
3292
2672
2673
2002
2817
2816
3483
2709
2001
3977
3976
2900
2901
1990
1989
3970
2957
2958
3969
2596
2595
2596
2595
569
570
2059
2884
2053
2052
2055
2054
1948
3151
3150
2233
2271
2270
2272
2271
2060
2271
2270
2271
2270
2267
2266
2266
363
362
2265
2837
2951
3292
2800
2801
2266
2265
2806
2693
2694
1996
1997
2975
2270
2271
2712
3862
3872
3871
2836
3013
3149
2976
2330
2329
2638
1075
2330
2329
2332
2331
2673
3531
3727
3726
3045
2697
2568
2627
2628
3153
3347
3731
3730
3541
221
222
3062
3061
2839
2838
1115
3310
3154
3279
3280
2840
2839
3152
1350
3354
2030
2892
3483
338
3009
3299
2819
2820
2867
3003
2248
2249
2663
2143
2142
2767
3148
2159
2158
2892
2893
3147
3126
3125
2231
2232
3328
3327
3187
3188
3298
2892
2893
3324
1063
2673
2006
3307
3308
1376
3496
2972
2696
2962
1346
1345
1062
3748
3749
1351
3413
15
3179
3631
3255
3303
3304
3304
3069
3305
2934
3308
3307
2031
2625
2555
2030
3341
3342
2031
3544
3872
3873
3291
3290
2718
2717
2695
2694
3288
2724
3289
3260
3260
2699
2700
3343
3464
3465
3197
1949
2571
2577
2576
3058
3059
3489
2606
3299
3361
3466
3467
2629
2606
1065
1066
2706
2705
2818
3255
2726
2727
2965
403
2706
2705
3038
3010
3484
2780
3053
3054
2822
2821
3127
3114
3113
2902
2901
3070
3513
2638
3020
3021
3112
3019
3018
3111
55
2670
3366
2960
2959
2634
2575
3429
458
457
3206
2745
3502
1173
2746
2692
3324
2960
2961
3323
3343
3291
3998
3478
3338
3339
3270
3873
2639
2726
2727
3477
18
2682
2102
2101
3433
3329
3432
16
456
457
3298
2966
2211
1181
3137
109
108
3016
3017
3436
3435
56
2559
2955
1124
2664
3002
2997
2998
571
2102
2101
2548
3206
3205
2958
3081
2817
2919
127
2650
3424
2331
3054
3055
2856
2197
2703
3862
1756
1757
2951
3284
3285
2650
3176
2607
1618
1617
3008
3007
3121
403
225
3506
3320
157
158
2867
3041
339
2746
3047
3048
3184
3420
3145
2073
2072
3525
3047
2676
2187
2995
3006
3944
2003
2323
2324
2563
2564
3425
3419
3309
3308
2840
1114
3128
2893
2894
3531
2547
2953
3264
3147
195
194
3350
1071
1070
1945
1379
1427
2249
360
11
12
3232
359
3132
2703
2704
3330
3329
364
17
2627
2628
1944
1350
1349
1351
1957
3945
3053
2544
1945
1944
2971
2972
2964
2965
2912
2005
2031
2899
2027
1949
2518
2898
2956
3127
2964
2965
2744
2502
1950
2961
2026
2914
2915
2903
2955
2506
1122
2605
2663
2723
3174
3173
3306
3305
2858
2920
2058
2057
3850
3321
2803
3320
3325
3311
3307
2818
223
3165
2891
2892
2864
3239
3284
3285
2888
2889
3238
3239
2821
2820
2788
2663
2074
2977
2978
3237
3238
3185
3186
2550
3216
2433
2432
1370
2603
3180
2790
2895
2896
2945
2946
3365
2766
458
3505
2494
459
459
111
110
3507
3188
111
110
2845
2056
2006
2768
3021
3022
3174
3175
2567
3998
2675
2727
3010
3011
3305
3306
3512
2593
2592
2157
2229
2228
2719
2159
2599
1139
1138
2210
2209
2232
2231
2518
2640
109
2767
2768
2795
2796
3011
3012
2056
2057
2581
3524
2674
3201
3202
2212
2895
2894
2938
3313
1076
3514
3280
3306
3305
1023
3506
3207
3229
2949
3309
2966
2967
3022
3023
2873
2874
3310
3307
3308
2683
2781
2559
2928
3135
2949
2626
2779
2780
2624
2625
3946
2578
3187
3940
3941
16
3255
2800
3310
2968
3692
3691
3184
2435
2434
2549
1226
2966
2967
2186
2544
2543
3507
3309
3310
2966
2967
286
3097
2703
2704
2951
2674
2675
363
2809
2808
2748
2749
2650
2818
2744
2966
2967
3366
2973
3342
2745
1147
1146
2728
2949
2723
2722
2600
3285
2650
2890
2550
2857
3368
2794
3361
2724
2896
2898
2897
2950
2294
3513
2232
1619
3310
3309
336
335
340
2625
3120
3328
3239
3240
2940
3240
19
18
19
2674
2501
2506
2507
2507
3256
2675
2503
2502
3327
3367
2676
3412
3411
2895
2894
3280
3281
3367
2876
2875
2895
396
3171
3172
2929
2675
1035
1036
2676
3404
3405
2325
48
3042
3413
2257
2256
2559
2894
2895
1235
1234
2918
1880
1032
2771
159
1031
3227
2707
2702
2708
2257
2256
2702
3121
303
2707
2708
1758
1759
3430
2743
2103
3236
3237
572
1378
2756
3264
2974
1620
2599
310
311
2628
2835
2141
2142
1620
3120
2895
2296
2434
2973
3402
3403
2894
2574
2806
2807
2780
3008
2921
2922
1494
2250
2999
1998
3236
3237
3344
2934
2935
3849
2990
2991
2798
2799
3426
3427
2716
3371
3431
3348
2766
3389
3390
2536
2537
3324
3323
3281
3282
2855
2856
3323
3322
2788
2746
2747
3693
3692
3174
3175
3271
3219
224
3026
3027
2845
2742
2178
2194
3012
3271
3007
3008
2127
3500
1427
3256
1947
3418
3417
3280
3281
3159
3160
2920
2921
2585
291
292
3350
3323
2548
1037
3322
2103
2894
2865
3383
3490
2233
2919
2797
2918
193
2599
2770
2771
2722
2723
3046
3426
3425
2487
2769
3503
2252
2704
2703
3287
3288
339
3365
3364
3514
2949
44
43
3045
3046
3047
2925
135
2660
2661
2252
2872
2614
1759
2770
2771
2057
2494
3059
3328
3084
2920
2252
2769
3294
2556
3177
2536
2537
1219
3945
2535
2703
3693
3219
2745
2996
2157
2750
2749
2630
3368
2811
2810
3394
3395
2805
3015
18
1043
1042
1252
3390
3391
2841
2804
3293
3382
3381
2620
2251
175
176
3558
3557
3513
2746
2202
2864
2865
2565
2744
2745
2769
2770
2765
3282
3281
2617
3329
2724
3327
3328
3022
3239
2971
2895
3473
493
492
3342
3343
3281
2685
2686
2684
3378
2931
177
2921
3482
3539
3538
3329
2765
3377
3282
2865
363
17
364
3216
2769
15
2770
61
60
16
3368
3367
364
1758
1759
1616
2946
1615
3343
1971
1736
3330
3291
1760
2599
3098
3277
3278
2593
2683
2684
3011
2892
1621
3637
2143
2144
3882
3881
1025
3365
2891
2158
3364
3554
3555
3310
1236
1237
2890
2745
221
2891
2890
3321
3322
3263
1049
3082
3083
2979
2069
2890
2891
2979
2980
145
144
2947
2948
2559
442
3506
3403
3404
2996
93
1019
2947
2948
3010
3014
1227
3009
2611
2610
3265
3337
3338
3263
2618
1022
3383
1182
3263
3264
3312
3313
3042
1888
3337
3338
571
2823
2822
2974
3264
2896
3286
3264
2068
1021
1020
3383
2824
2825
3203
2660
1755
2661
1760
3341
2823
3499
2708
304
1754
1621
3370
2858
1020
2289
1620
1619
3283
3272
3227
3042
3048
2621
1904
1905
2620
3392
3391
2626
3944
2830
3945
223
3267
3266
2674
3270
3271
532
533
3946
2996
2723
2911
3003
3257
3252
3022
3251
2567
2893
3406
3231
3255
3256
3067
2996
1013
1012
2921
3257
1470
1469
2435
1494
3272
3109
3110
2247
2246
2251
2253
2230
1190
3393
2680
2234
1648
2229
2933
2704
3364
3215
2071
2072
1736
2599
3326
3491
2559
3329
3490
3491
3077
1409
2911
2437
184
185
3086
2250
2756
1233
3282
3511
2254
3097
3096
3085
3084
1037
1036
3426
2756
2965
2257
2233
3281
2620
3364
23
22
2735
3445
3446
3472
3471
1845
1846
371
370