# vtk DataFile Version 1.0
...
ASCII

DATASET POLYDATA
POINTS 41947 float
6839.7119 1248.2999 13478.2559
6839.7119 1248.2999 13545.3115
9052.5596 1222.5 10863.0723
9052.5596 1222.5 10930.1279
9320.7842 1219.1 10393.6797
9387.8398 1219.1 10393.6797
9589.0078 1218.1 9656.0645
9589.0078 1218.1 9723.1201
9656.0645 1345.1001 4626.8638
9723.1201 1345.1001 4626.8638
9723.1201 1211.7 11332.4639
9723.1201 1211.7 11399.5195
10125.4561 1211.3 10997.1836
10192.5117 1211.3 10997.1836
9656.0645 1329.0 1274.064
9723.1201 1329.0 1274.064
10863.0723 1112.2001 14014.7041
10930.1279 1112.2001 14014.7041
10863.0723 1210.6 10192.5117
10930.1279 1210.6 10192.5117
11332.4639 1316.6 5833.8721
11399.5195 1316.6 5833.8721
11332.4639 1316.4 5900.9282
11399.5195 1316.4 5900.9282
10863.0723 1314.8 5699.7598
10930.1279 1314.8 5699.7598
10192.5117 1068.6001 15624.0479
10192.5117 1068.6001 15691.1035
9454.8965 1218.5 10125.4561
9521.9521 1218.5 10125.4561
9454.8965 1331.9 1072.896
9521.9521 1331.9 1072.896
9320.7842 1332.0 1072.896
9387.8398 1332.0 1072.896
9320.7842 1327.2999 603.504
9387.8398 1327.2999 603.504
8985.5039 1198.1 13612.3682
8985.5039 1198.1 13679.4238
8717.2803 1047.0 15624.0479
8784.3359 1047.0 15624.0479
8717.2803 1323.5 2212.8479
8784.3359 1323.5 2212.8479
8583.168 1225.5 11198.3516
8650.2236 1225.5 11198.3516
7845.5518 1407.0 8583.168
7845.5518 1407.0 8650.2236
7711.4399 1237.8 12405.3604
7711.4399 1237.8 12472.416
7443.2158 1242.2001 12673.584
7443.2158 1242.2001 12740.6396
7376.1602 1375.1 6906.7681
7443.2158 1375.1 6906.7681
7376.1602 1314.8 3218.688
7443.2158 1314.8 3218.688
7040.8799 1245.9 13746.4805
7040.8799 1245.9 13813.5361
11600.6885 1210.2 9723.1201
11667.7441 1210.2 9723.1201
11734.7998 1201.5 10863.0723
11734.7998 1201.5 10930.1279
12204.1924 1354.4 1944.624
12271.248 1354.4 1944.624
12204.1924 1322.2 4626.8638
12271.248 1322.2 4626.8638
12204.1924 1196.8 10125.4561
12204.1924 1196.8 10192.5117
12204.1924 1139.0 13277.0879
12271.248 1139.0 13277.0879
12338.3037 1195.7001 10259.5684
12338.3037 1195.7001 10326.624
12271.248 1327.2999 4157.4722
12271.248 1327.2999 4224.5278
12405.3604 1352.5 1676.4
12472.416 1352.5 1676.4
12405.3604 1323.3 4425.6958
12472.416 1323.3 4425.6958
12405.3604 1193.1 10930.1279
12472.416 1193.1 10930.1279
12405.3604 1206.0 8717.2803
12472.416 1206.0 8717.2803
12807.6963 1070.0 15758.1602
12807.6963 1070.0 15825.2158
13142.9756 1118.1001 13746.4805
13142.9756 1118.1001 13813.5361
12874.752 1350.9 1274.064
12941.8076 1350.9 1274.064
12673.584 1068.0 15624.0479
12673.584 1068.0 15691.1035
12740.6396 1161.7 12204.1924
12740.6396 1161.7 12271.248
12405.3604 1194.5 10594.8477
12472.416 1194.5 10594.8477
12204.1924 1207.8 8985.5039
12271.248 1207.8 8985.5039
12204.1924 1318.2 5163.312
12271.248 1318.2 5163.312
11734.7998 1317.5 5230.3682
11734.7998 1317.5 5297.4238
11466.5762 1314.9 5163.312
11533.6318 1314.9 5163.312
11466.5762 1351.4 2749.2959
11533.6318 1351.4 2749.2959
11332.4639 1313.7999 6169.1519
11399.5195 1313.7999 6169.1519
11332.4639 1352.2001 2883.408
11399.5195 1352.2001 2883.408
10863.0723 1333.2 134.112
10930.1279 1333.2 134.112
10527.792 1074.0 15624.0479
10527.792 1074.0 15691.1035
10259.5684 1333.5 536.448
10326.624 1333.5 536.448
10125.4561 1174.5 13210.0322
10192.5117 1174.5 13210.0322
10125.4561 1348.2999 4224.5278
10192.5117 1348.2999 4224.5278
9857.2324 1216.1 10125.4561
9857.2324 1216.1 10192.5117
9857.2324 1210.8999 11332.4639
9857.2324 1210.8999 11399.5195
9656.0645 1314.0 7107.936
9723.1201 1314.0 7107.936
9521.9521 1218.5 10192.5117
9454.8965 1345.1001 4626.8638
9521.9521 1345.1001 4626.8638
9454.8965 1332.1 1005.84
9521.9521 1332.1 1005.84
9320.7842 1218.7001 10326.624
9387.8398 1218.7001 10326.624
9253.7275 1221.3 10863.0723
9253.7275 1221.3 10930.1279
8918.4482 1198.4 13478.2559
8918.4482 1198.4 13545.3115
8717.2803 1041.3999 15758.1602
8784.3359 1041.3999 15758.1602
8717.2803 1226.0 11332.4639
8717.2803 1226.0 11399.5195
8717.2803 1222.2001 10796.0156
8784.3359 1222.2001 10796.0156
8583.168 1206.2 13947.6484
8650.2236 1206.2 13947.6484
8583.168 1323.6001 2279.9041
8650.2236 1323.6001 2279.9041
8516.1123 1227.0 11466.5762
8516.1123 1227.0 11533.6318
7845.5518 1235.2999 12405.3604
7845.5518 1235.2999 12472.416
7778.4961 1236.6001 12405.3604
7778.4961 1236.6001 12472.416
7376.1602 1243.2 12673.584
7376.1602 1243.2 12740.6396
7376.1602 1366.2 6504.4321
7443.2158 1366.2 6504.4321
7376.1602 1364.6 6437.376
7443.2158 1364.6 6437.376
7376.1602 1334.7 1207.0081
7443.2158 1334.7 1207.0081
6973.8242 1153.9 15624.0479
6973.8242 1153.9 15691.1035
6638.5439 1253.4 12874.752
6638.5439 1253.4 12941.8076
13142.9756 1081.1 15758.1602
13142.9756 1081.1 15825.2158
13478.2559 1190.6003 10125.4561
13478.2559 1190.6003 10192.5117
13478.2559 1328.4 3352.8
13545.3115 1328.4 3352.8
13478.2559 1324.2001 4157.4722
13545.3115 1324.2001 4157.4722
13478.2559 1202.8 8314.9443
13545.3115 1202.8 8314.9443
13612.3682 1347.1 804.672
13679.4238 1347.1 804.672
13746.4805 1346.0 536.448
13813.5361 1346.0 536.448
13746.4805 1324.8 4157.4722
13813.5361 1324.8 4157.4722
13813.5361 1104.1 15624.0479
13813.5361 1104.1 15691.1035
13947.6484 1104.0 15422.8799
13947.6484 1104.0 15489.9355
13947.6484 1108.2999 15624.0479
13947.6484 1108.2999 15691.1035
13813.5361 1169.2999 11332.4639
13813.5361 1169.2999 11399.5195
13746.4805 1327.2001 3822.1919
13813.5361 1327.2001 3822.1919
13746.4805 1318.7 2279.9041
13813.5361 1318.7 2279.9041
13746.4805 1339.0 1408.176
13813.5361 1339.0 1408.176
13612.3682 1190.0 9454.8965
13612.3682 1190.0 9521.9521
13612.3682 1323.3 4224.5278
13679.4238 1323.3 4224.5278
13478.2559 1322.2999 4291.584
13545.3115 1322.2999 4291.584
13411.2002 1091.3 15758.1602
13411.2002 1091.3 15825.2158
13075.9199 1193.7 9656.0645
13075.9199 1193.7 9723.1201
12941.8076 1073.5 15624.0479
12941.8076 1073.5 15691.1035
12874.752 1203.0 8851.3916
12941.8076 1203.0 8851.3916
12874.752 1204.3999 8583.168
12941.8076 1204.3999 8583.168
12874.752 1340.1001 469.392
12941.8076 1340.1001 469.392
12740.6396 1194.9 10259.5684
12740.6396 1194.9 10326.624
12673.584 1194.9 10259.5684
12673.584 1196.0 9924.2881
12740.6396 1196.0 9924.2881
12740.6396 1204.7 8717.2803
12740.6396 1204.7 8784.3359
12673.584 1322.7001 4358.6401
12740.6396 1322.7001 4358.6401
12673.584 1323.4 4291.584
12740.6396 1323.4 4291.584
12673.584 1324.3999 4090.416
12740.6396 1324.3999 4090.416
12405.3604 1321.2001 4760.9761
12472.416 1321.2001 4760.9761
12405.3604 1195.7999 10125.4561
12405.3604 1195.7999 10192.5117
12204.1924 1328.0 4157.4722
12204.1924 1328.0 4224.5278
11935.9678 1197.7001 10125.4561
11935.9678 1197.7001 10192.5117
11600.6885 1094.4 15154.6563
11667.7441 1094.4 15154.6563
11600.6885 1202.8 10863.0723
11600.6885 1202.8 10930.1279
11466.5762 1316.0 5900.9282
11533.6318 1316.0 5900.9282
11466.5762 1352.3999 2615.1841
11533.6318 1352.3999 2615.1841
11332.4639 1127.3 13679.4238
11399.5195 1127.3 13679.4238
11332.4639 1154.6 13142.9756
11399.5195 1154.6 13142.9756
11332.4639 1315.3 6035.04
11399.5195 1315.3 6035.04
11332.4639 1315.9 5967.9839
11399.5195 1315.9 5967.9839
10863.0723 1075.0 15892.2725
10930.1279 1075.0 15892.2725
10796.0156 1210.8999 10259.5684
10796.0156 1210.8999 10326.624
10393.6797 1208.7999 10259.5684
10393.6797 1208.7999 10326.624
10259.5684 1211.3 10930.1279
10326.624 1211.3 10930.1279
10259.5684 1209.9 10661.9043
10326.624 1209.9 10661.9043
10259.5684 1345.6 4425.6958
10326.624 1345.6 4425.6958
10259.5684 1349.8 4090.416
10326.624 1349.8 4090.416
10259.5684 1328.1 1072.896
10326.624 1328.1 1072.896
10125.4561 1112.8 14081.7598
10192.5117 1112.8 14081.7598
10125.4561 1210.6 10796.0156
10192.5117 1210.6 10796.0156
9723.1201 1211.7999 11466.5762
9723.1201 1211.7999 11533.6318
9790.1758 1211.4 11466.5762
9790.1758 1211.4 11533.6318
9656.0645 1212.0 11466.5762
9656.0645 1212.0 11533.6318
9656.0645 1218.2 10125.4561
9656.0645 1218.2 10192.5117
9454.8965 1210.4 11868.9121
9521.9521 1210.4 11868.9121
9454.8965 1218.5 10259.5684
9454.8965 1218.5 10326.624
9454.8965 1345.2 4760.9761
9521.9521 1345.2 4760.9761
8717.2803 1044.0 15691.1035
8784.3359 1044.0 15691.1035
8717.2803 1346.9 5498.5918
8784.3359 1346.9 5498.5918
8717.2803 1346.6001 268.224
8784.3359 1346.6001 268.224
8583.168 1225.0 11131.2959
8650.2236 1225.0 11131.2959
7845.5518 1235.3999 12204.1924
7845.5518 1235.3999 12271.248
7644.3838 1238.7001 12673.584
7644.3838 1238.7001 12740.6396
7376.1602 1373.6 6839.7119
7443.2158 1373.6 6839.7119
6839.7119 1249.5 12673.584
6839.7119 1249.5 12740.6396
6772.6558 1249.5 13478.2559
6772.6558 1249.5 13545.3115
6571.4878 1340.6 10125.4561
6571.4878 1340.6 10192.5117
6437.376 1258.0 12874.752
6437.376 1258.0 12941.8076
14148.8164 1110.7 15422.8799
14148.8164 1110.7 15489.9355
14282.9277 1115.0 15422.8799
14282.9277 1115.0 15489.9355
14349.9844 1117.7 15624.0479
14349.9844 1117.7 15691.1035
14417.04 1119.0 15624.0479
14417.04 1119.0 15691.1035
14215.8721 1316.4 2011.6801
14282.9277 1316.4 2011.6801
14081.7598 1167.6 11466.5762
14081.7598 1167.6 11533.6318
14014.7041 1106.4 15422.8799
14014.7041 1106.4 15489.9355
13746.4805 1327.4 3755.136
13813.5361 1327.4 3755.136
13746.4805 1344.1 1139.952
13813.5361 1344.1 1139.952
13545.3115 1166.1 11600.6885
13545.3115 1166.1 11667.7441
13478.2559 1088.5002 14886.4316
13545.3115 1088.5002 14886.4316
13478.2559 1328.0 3688.0801
13545.3115 1328.0 3688.0801
13277.0879 1086.1 15758.1602
13277.0879 1086.1 15825.2158
12807.6963 1194.3 10125.4561
12807.6963 1194.3 10192.5117
12673.584 1322.6 4425.6958
12740.6396 1322.6 4425.6958
12405.3604 1100.9003 14752.3203
12472.416 1100.9003 14752.3203
12405.3604 1320.2999 4895.0879
12472.416 1320.2999 4895.0879
12204.1924 1135.1 13478.2559
12271.248 1135.1 13478.2559
12204.1924 1162.5 12338.3037
12271.248 1162.5 12338.3037
11600.6885 1200.2 10527.792
11667.7441 1200.2 10527.792
11466.5762 1084.0 15422.8799
11533.6318 1084.0 15422.8799
11332.4639 1203.6001 10863.0723
11332.4639 1203.6001 10930.1279
11332.4639 1314.6 6102.0962
11399.5195 1314.6 6102.0962
[...]
POINT_DATA 41947
SCALARS temp int
LOOKUP_TABLE default
1300
1299
1402
1403
1415
1414
1428
1427
472
473
1479
1478
1454
1455
1408
1409
1646
1645
1487
1486
133
132
134
133
150
149
1756
1755
1421
1420
1408
1407
1400
1401
1453
1452
1426
1427
1806
1805
1412
1411
1390
1389
642
643
1355
1356
1349
1350
568
567
1373
1374
1321
1322
1501
1502
1510
1511
384
383
182
181
1530
1531
1601
1600
1544
1543
212
213
379
378
190
191
1575
1576
1532
1531
1791
1792
1684
1683
364
365
1783
1782
1585
1584
1568
1567
1523
1522
156
157
146
145
139
140
419
418
120
121
413
414
1457
1458
1741
1740
1436
1435
1585
1586
457
458
1435
1436
1463
1464
121
122
1419
475
474
1407
1406
1416
1415
1409
1410
1427
1426
1808
1807
1388
1389
1414
1413
1425
1424
1415
1414
1385
1386
1361
1362
1360
1361
1344
1345
560
559
559
558
1387
1386
1286
1285
1282
1281
1800
1799
1583
1584
238
237
204
205
1554
1555
342
341
334
333
208
209
1896
1895
1893
1892
1890
1889
1620
1619
243
244
268
269
301
300
1589
1588
205
206
204
205
1908
1907
1566
1565
1791
1792
1547
1546
1537
1538
348
347
1550
1551
1549
1558
1559
1535
1536
191
192
196
195
199
200
177
176
1535
1534
215
214
1524
1523
1702
1703
1502
1503
134
135
407
406
1622
1621
1606
1605
122
123
123
124
1752
1753
1481
1480
1493
1494
1457
1458
1465
1464
468
469
455
456
1474
1473
1656
1655
1459
1460
1477
1476
1468
1469
1476
1475
1430
1431
1493
1494
1419
1420
477
478
1807
1806
503
502
1413
1414
1393
1392
1358
1359
1354
1355
569
568
1312
1311
1293
1294
718
719
1315
1314
1888
1887
1880
1879
1876
1875
1871
1872
279
280
1616
1617
1892
1891
244
245
313
312
1606
1605
1816
1815
239
238
1804
1805
1561
1560
190
189
1676
1677
175
176
1604
1603
1569
1568
1519
1518
1722
1723
1500
1499
121
122
1497
1496
1701
1700
1468
1469
1488
1487
1460
1459
1454
1455
1455
1456
112
111
1459
1458
948
949
1081
1080
1078
1077
1066
1067
1060
1059
1069
1070
944
945
936
937
1851
1852
849
848
978
977
974
973
1140
1139
1010
1011
1009
1008
984
985
1020
1019
1027
1028
967
968
1074
1073
1031
1032
1005
1004
991
992
905
906
901
902
992
991
898
897
904
905
1002
1003
993
994
938
939
1315
1314
906
905
902
901
1015
1014
930
931
794
793
851
852
864
863
827
826
790
789
822
823
938
939
785
786
1131
1132
786
787
814
813
808
809
813
812
813
814
1060
1061
1177
1176
835
834
764
763
836
837
1076
1075
770
771
1049
1048
1067
1068
781
780
1244
1243
1209
1210
1197
1196
1111
1112
757
758
756
755
752
751
855
856
1240
1241
1246
1247
1145
1144
1232
1231
1191
1190
1181
1180
896
895
1263
1264
1262
1263
1265
1264
1278
1277
1167
1168
707
708
893
894
1194
1195
1202
1201
1211
1210
665
664
1230
1229
1244
1243
647
648
1245
1244
1246
1245
1276
1277
1289
1290
1317
1316
104
103
1150
1151
1327
1328
1326
1327
1337
1338
1369
1370
1308
1309
430
429
158
157
1525
1524
1533
1534
207
206
1546
1545
1563
1564
1545
1546
1538
1539
169
170
360
359
1412
1413
1406
1407
1333
1334
1524
1525
1605
1604
1603
1602
1530
1529
1527
1526
1413
1414
337
338
337
338
279
278
281
280
1604
1603
1590
1589
1832
1831
280
279
389
390
1589
1588
1517
1518
1776
1775
1528
1529
183
182
1520
1521
1511
1512
1468
1467
1145
1146
955
956
1018
1017
970
969
915
916
780
781
795
794
1088
1087
869
868
1179
1178
1211
1210
1313
1312
1241
1242
1619
1618
1582
1583
1582
1583
1349
1348
1268
1267
1296
1295
1615
1614
853
854
1269
1270
1399
1400
1562
1561
1290
1289
1527
1526
1631
1632
1574
1575
1574
1575
853
852
1593
1592
1321
1320
789
788
1808
1807
1347
1346
1809
1808
1886
1885
1580
1579
1861
1862
1038
1037
770
771
1065
1066
1267
1266
1369
1370
1322
1321
1809
1808
1492
1493
1462
1461
1459
1460
1482
1483
423
422
1742
1743
1475
1476
1384
1385
1685
1686
146
147
404
405
1755
1756
424
423
1409
1410
1411
1410
1403
1404
502
501
1372
1373
1368
1369
1346
1347
1610
1611
1591
1590
240
241
235
236
1795
1796
1532
1533
1673
1672
1576
1577
378
377
1771
1772
1617
1616
1496
1495
1488
1487
1523
1524
1527
1518
1517
1458
1459
66
65
463
462
1382
1383
1284
1283
215
216
1586
1587
1585
1584
1584
1583
1554
1555
1539
367
366
1647
1646
374
375
1572
1571
1511
1510
1498
1496
1495
1751
1752
1492
1491
462
463
1090
1089
959
958
1868
1867
1124
1125
1865
1864
1046
1047
1071
1072
1010
1009
1001
1000
993
992
988
987
981
982
908
909
883
884
1029
1030
804
805
774
773
763
764
753
752
1082
1083
1232
1233
1156
1157
1120
1121
742
741
772
771
732
733
785
784
711
712
892
891
1180
1181
1191
1190
1304
1303
1305
1306
1261
1262
1262
1263
712
711
702
701
892
893
1213
1212
1209
1208
1217
1218
1237
1236
1322
1321
105
104
1408
1409
1366
1367
489
488
1624
1623
1799
1798
1415
1414
161
162
1530
1531
204
205
1545
1544
152
153
153
154
1523
1524
267
266
1625
1626
1591
1592
1566
1565
1615
1614
1467
1466
975
976
773
774
761
762
1209
1208
1283
1282
615
614
617
616
1328
1327
1392
1391
1407
1406
1410
1411
1367
1366
1354
1355
622
623
1318
1317
1401
1400
486
485
119
120
1456
1457
450
451
1491
1490
1798
1797
1405
1404
1412
1413
1807
1806
1419
1420
1353
1354
1337
1338
1345
1346
1344
1345
1317
1318
135
136
1530
1524
1523
1543
1542
208
207
1541
1574
1537
1536
1541
1542
1543
1544
1568
1569
1554
1553
1548
1577
1576
1591
1590
378
377
1605
1604
1523
1524
1604
1603
1459
1458
1453
1454
111
110
1757
1758
1783
1784
1560
1559
473
474
1561
1560
1413
1412
1400
1401
1403
1402
1421
1422
1418
1419
1421
1420
1808
1807
1394
1393
508
507
1409
1410
1371
1372
1367
1368
1364
1365
1352
1353
1361
1360
566
565
563
562
1366
1365
1287
1286
1319
1320
1319
1320
1315
1316
1287
1286
1571
1572
250
249
347
346
1624
1625
1585
1586
1908
1907
264
265
240
241
206
207
1574
1573
1590
1589
1598
1599
245
246
246
245
250
249
1568
1567
1561
1562
1569
1568
1897
1898
1893
1892
1816
1815
1818
1819
251
250
310
309
1610
1609
1902
1901
1588
1589
1557
1558
1578
1577
1579
1578
194
195
1790
1791
195
1552
1575
1574
1545
1544
1567
1566
1609
1610
1603
1602
1535
1534
1525
1524
144
143
141
142
402
401
1472
1473
1697
1696
1498
1497
1614
1613
1478
1479
1462
1463
1738
1739
1726
1725
1484
1483
108
107
1481
1482
1431
1432
113
112
119
120
1466
1467
475
474
1431
1432
1776
1775
1427
1428
1420
1421
1488
1489
1418
1414
1415
1404
1405
1478
1477
1565
1564
1403
1404
1400
1401
1394
1395
1389
1388
1385
1384
1373
1374
552
551
1313
1312
1286
1285
1318
1319
621
622
1889
1888
1881
1880
334
335
256
257
1582
1583
1625
1624
1636
1637
1879
1878
264
265
342
341
1907
1906
1559
1560
240
241
280
281
203
204
211
212
1800
1801
1794
1795
1675
1676
1678
1677
1562
212
213
363
362
1585
1584
1553
1552
1581
1582
1536
1537
157
158
377
376
1534
1533
1608
1609
1514
1513
1509
1510
147
148
1511
1510
147
148
133
134
137
136
1603
1602
414
415
1456
1457
1657
1656
1547
1548
1458
1457
460
459
1762
1761
1551
1550
1147
1148
871
870
868
867
1076
1077
892
891
867
866
1077
1076
945
946
1067
1068
1048
1049
1065
1066
1046
1045
1867
1866
947
946
1080
1081
1864
1863
1135
1134
1012
1011
1146
1147
969
970
968
967
1022
1023
978
977
1005
1004
1002
1003
1007
1006
1004
1003
1032
1033
1036
1037
1045
1044
975
974
986
987
895
894
902
901
982
983
970
969
980
981
889
890
888
887
1008
1009
883
884
935
934
1312
1313
1668
1667
932
933
866
865
848
847
845
844
1123
1124
917
918
1870
1869
825
824
1043
1042
782
783
1047
1046
788
787
771
772
1051
1050
818
819
821
822
772
773
785
784
775
774
765
764
760
761
1086
1087
1234
1233
1235
1236
1236
1237
1239
1240
1196
1195
752
764
763
758
759
775
774
860
859
1057
1058
1235
1234
1088
1087
777
776
1237
1236
1238
1239
735
736
746
745
871
872
1109
1108
1119
1120
1120
1121
713
712
710
709
1136
1135
1233
1234
728
729
1172
1171
718
717
1182
1181
890
889
1194
1193
1183
1182
1270
1271
1190
1189
1362
1363
1309
1308
1306
1307
1310
1309
1269
1270
1268
1269
1251
1252
1197
1198
1198
1199
1180
1181
1171
1172
713
714
708
709
897
896
707
708
1222
1221
700
701
1236
1235
1245
1244
1241
1240
648
649
1248
1247
920
919
1247
1246
651
650
1248
1247
1285
1286
633
632
1302
1301
1305
1304
738
737
1370
1371
1407
1408
1375
1376
1347
1348
1307
1306
1680
1679
1523
1524
1604
1603
1539
1538
1518
1519
184
183
1500
1499
1496
1497
100
101
1417
1416
145
144
1379
1380
1349
1350
1286
1287
1594
1595
214
215
257
256
359
358
1533
1532
168
169
1500
1499
1476
1475
101
102
1446
1447
1445
1446
1416
1415
492
493
1397
1398
274
273
1603
1602
1597
1596
1590
1591
1598
1599
260
261
205
206
1670
1671
1594
1593
164
165
365
366
1530
1531
1026
1027
913
914
972
973
1002
1001
968
969
1032
1033
815
816
832
831
758
759
751
752
728
729
1180
1179
725
726
724
725
1250
1249
1362
1363
1416
109
108
1483
1484
1702
1703
1497
1496
1754
1753
1281
1280
50
49
1524
1525
1573
1580
1579
349
348
1548
1549
370
369
158
159
1545
1544
1503
1504
1501
1497
1498
1459
1458
1463
1464
1648
1647
1463
1464
1791
1792
1565
1566
476
475
483
484
1403
1402
491
492
1406
1407
1810
1809
1807
1806
1381
1382
1318
1319
1283
1282
1811
1810
1575
1574
244
245
1576
1577
221
222
1803
1804
362
363
1536
1582
1583
183
184
168
167
145
144
1495
1494
1488
1487
1488
1487
1522
1523
1480
1479
1489
1488
1749
1748
1427
1428
1462
1463
1413
1412
1423
1424
1808
1807
1357
1358
1360
1359
1618
1619
1601
1600
1585
1586
1877
1878
1578
1579
214
215
333
332
1605
1604
1565
1564
1582
1581
171
172
145
144
149
148
1605
1604
1480
1479
865
866
1170
1169
940
941
870
869
1140
1139
948
949
1136
1137
938
939
1070
1071
971
972
1065
1066
994
993
966
967
995
994
897
896
899
900
990
991
893
892
907
906
892
891
1005
1006
811
810
911
910
864
865
938
937
912
913
805
806
775
776
1071
1070
754
753
796
797
769
768
1070
1069
778
779
855
854
1083
1084
772
771
1204
1203
1151
1152
1069
1070
856
855
1060
1061
749
750
1243
1242
1122
1121
727
728
711
710
1193
1192
1371
1370
1308
1307
1272
1273
1275
1276
1274
1273
705
706
1224
1223
1239
1238
1229
1228
1260
1259
1261
1260
1315
1314
1321
1320
1329
1328
1295
1294
490
1348
1349
399
400
1527
1528
1420
1419
1338
1339
1589
1588
1565
1564
1639
1640
1531
1538
1537
1469
1468
1460
1426
1427
1281
1280
1589
1590
110
109
1153
1154
1003
1002
976
977
875
876
806
805
875
874
724
725
1181
1180
1196
1197
647
646
1312
1311
916
917
1026
1027
1535
1536
1362
1363
164
165
1411
1410
505
504
1354
1355
651
650
1370
1371
1279
1401
1400
1416
1415
1417
1417
1416
1453
1452
1705
1706
117
118
1611
1610
1639
1638
1486
1485
1464
1463
1433
1434
1431
1432
1569
1568
1495
473
1408
1412
1809
1420
1363
1364
606
607
1279
1278
1682
1681
1618
1619
1576
1575
1563
1564
1572
1571
1621
1622
1526
1699
1698
1618
1617
1489
1464
1465
1476
431
1465
1464
1640
1639
112
1486
1485
1491
1423
1424
1421
491
1402
1401
1424
1425
1423
1424
1402
500
501
1399
1400
1808
1409
1384
1385
574
573
1324
1325
1552
1551
1599
1598
1587
1586
1593
1594
218
219
1684
224
223
1558
1557
1522
1625
1626
1539
1525
1524
1507
1508
1491
1490
1495
1494
1501
1502
1504
1503
145
146
1534
1535
1478
1479
1479
1478
1449
1448
1483
1484
109
110
451
452
1488
1487
1490
1489
1492
1491
1460
1455
1455
114
1418
1417
1422
1411
1410
1803
1802
1423
1424
1394
1386
1387
1369
212
213
253
254
252
253
1584
1583
1573
1574
1714
1713
1824
1825
1878
1617
1616
1617
1616
1633
201
202
209
210
1543
1510
1511
1513
1514
160
363
364
1519
1611
1610
1755
1756
1498
1499
39
38
1494
1495
1450
1449
1493
1492
1457
1458
472
473
278
271
270
300
301
259
260
1602
1137
1138
1093
1094
1656
1655
1141
1142
888
889
1093
1094
1079
1627
1150
1149
1044
1043
850
849
1136
1606
1607
1024
1025
979
978
1013
1012
1686
1687
1028
1000
985
984
971
970
966
965
823
824
985
986
987
986
980
981
916
917
897
896
895
894
896
897
904
903
907
908
1674
1673
1028
1027
926
927
833
832
1030
1031
816
815
828
827
774
784
783
776
777
776
775
772
773
761
762
771
770
1079
1080
743
744
742
743
1082
1081
783
784
761
760
736
737
737
738
871
870
755
754
756
757
726
727
1125
1124
724
725
1197
1196
1179
678
677
1188
1189
715
716
713
714
1212
1213
1231
1230
693
694
906
905
1243
1242
1247
1246
1244
1243
1227
1226
653
654
1230
1229
1227
1226
1231
1232
1255
1254
644
643
630
629
627
626
705
706
1471
1470
1360
1359
1394
1395
1429
1428
519
518
1372
1371
496
497
474
118
117
141
142
487
486
493
494
1381
1380
1356
1355
1393
1394
1436
1435
1364
1363
1364
1363
1380
1381
1349
1348
140
139
123
122
1828
1827
1441
1440
1389
1388
1349
1348
1376
1377
1394
1393
1220
1221
1560
1616
1615
1615
1614
1333
1334
638
639
108
107
108
109
58
59
1111
1112
1062
1063
1133
1134
1071
1070
1134
1133
1082
1083
1010
1009
1065
1066
1070
1071
1077
1076
1109
1108
1107
1108
1117
1118
1142
1141
1165
1164
1159
1158
1233
1234
1232
1233
1223
1224
1238
1237
1072
1073
1245
1246
1242
1243
1225
1224
1162
1163
1155
1156
750
751
722
723
732
731
728
727
1364
1363
1264
1265
1265
1266
1177
1178
1162
1163
1164
1165
1303
1302
1370
1371
1369
1370
1268
1269
1267
1268
1254
1255
1200
1201
1183
1184
1174
1175
682
683
696
695
1364
1363
1316
1317
1290
1289
1286
1285
1279
1278
1308
1309
1255
1256
701
700
903
904
1309
1310
712
713
1381
1380
1329
1328
1319
1320
1294
1295
1282
1283
1280
1281
1282
1283
907
908
665
666
1328
1327
1381
1382
1297
1298
1286
1287
1288
1289
1329
1328
642
693
694
1330
1331
1310
1309
621
622
513
512
508
507
1812
1811
1813
1812
1360
1357
504
503
1422
470
471
1428
1429
1554
1553
1472
1471
1645
1644
141
140
128
129
100
99
1789
1788
1495
1494
1404
1801
1412
1411
1402
1807
1806
1405
1404
1811
1810
1393
1392
511
1813
510
509
1397
1398
1359
638
637
620
1301
1339
1338
707
708
1497
1517
1518
1623
1624
386
387
173
1542
177
1569
348
347
181
182
177
178
179
180
1547
1548
1566
1565
394
393
1607
1497
1498
1609
1488
121
418
419
1487
1486
450
451
1415
1414
1425
1426
1411
1401
1397
1398
1411
1814
1813
1382
1381
1370
1351
1311
1310
1314
351
350
200
201
1547
1548
1687
1688
1552
1551
232
233
233
234
1562
1561
1818
1817
251
1569
211
212
1612
1611
1570
1571
1820
1821
1632
1633
1574
1573
249
250
1613
1612
316
317
1563
1562
1626
1625
251
239
347
346
348
1689
1690
1686
1577
1576
207
208
1566
349
1586
1581
1547
1539
1538
185
184
206
1602
1573
1532
1533
1521
1656
1657
1624
1623
1491
119
139
138
1494
1538
1539
143
420
421
1620
1619
1525
421
420
1532
1533
1493
1492
1666
1665
1634
1633
1543
1544
457
449
450
1466
1465
1549
1548
119
118
474
475
1457
113
114
127
126
477
478
494
495
1424
1425
1382
1381
1425
1409
1408
1351
1352
1346
1347
1344
1345
1323
1315
1316
256
257
214
345
344
1615
1614
1608
1609
1582
1581
1637
1638
1619
1620
1652
1651
1608
1607
1571
1572
1618
215
216
251
1566
1620
1619
306
305
206
207
1676
1675
1586
1587
1535
193
1552
1582
1583
1551
1580
1579
1565
177
1526
1527
1522
166
173
174
1520
1521
1606
1616
119
120
1497
1754
1756
1755
1525
1526
148
421
1474
1477
1635
1634
1490
1442
1443
1445
1444
1467
1466
1584
1456
1449
1450
1161
1160
941
942
1067
1066
1139
1138
951
952
1609
1608
1014
1013
979
1021
1015
1016
961
960
1855
1856
985
984
971
972
1005
976
977
1006
990
989
1611
1612
1000
999
898
899
983
982
898
821
820
897
898
984
983
1070
1071
893
894
900
901
985
986
891
892
959
958
815
816
277
278
278
279
1319
1320
1612
1613
1318
1319
1067
1066
936
937
908
907
928
929
1684
1683
929
928
1891
1892
1633
1634
1087
1088
856
855
1088
1089
954
955
800
801
1871
828
809
808
807
808
806
807
811
812
1230
1231
776
775
1040
1041
1230
1231
1237
1238
1236
1237
778
779
1076
1075
1227
1228
788
787
755
754
853
758
757
1233
1232
749
748
1247
1248
1238
1236
1235
1243
1244
1212
1213
1152
1153
740
739
759
760
768
769
736
735
860
861
1099
1098
737
738
1118
1226
1225
1119
1231
1232
1140
1139
1367
1366
1364
1363
1268
1269
1265
1264
1250
1251
1164
1165
1159
1160
721
720
723
722
1241
1242
681
680
1205
1204
1191
1185
1184
1182
1193
1194
706
707
679
678
900
899
1193
1208
1207
1205
1204
1201
1202
1225
697
698
1243
1242
1234
1233
1232
704
705
1312
1311
1250
1249
1251
1250
1244
1255
1254
1256
1255
1320
1306
1565
1595
1641
1642
1638
1527
1528
5
4
758
763
764
1678
1679
987
988
1342
1343
1578
1509
1508
1671
1586
1587
1797
1798
1623
1644
1645
1168
1169
1396
1395
1564
1324
1323
1360
1361
1371
1372
1526
1527
302
301
116
117
261
260
1579
1578
1588
1587
1607
1350
1349
1346
1347
112
111
669
670
1614
1615
1110
1109
1609
1608
1128
1129
1062
1063
1180
1181
1358
1359
1390
1391
1420
1419
1373
1583
1584
1812
1811
1566
1565
177
178
511
510
323
324
1636
1637
1573
1572
1572
883
882
1609
1610
1611
847
846
960
961
902
1607
1073
1074
1074
1075
1336
1337
1228
1229
1389
1388
516
515
1407
1408
1497
1496
1451
1450
1472
1471
1505
1506
1458
1459
461
616
617
1594
1593
206
1492
1491
102
101
1457
491
1405
1406
499
498
1459
1458
1341
1342
1606
1605
200
201
1596
1595
1641
1592
1542
1543
1531
1532
1610
1609
1609
1608
1527
1526
149
150
1325
1326
1636
1461
466
467
473
1419
1418
1494
1582
1581
1552
1539
1473
103
102
1583
1582
1433
1434
121
120
943
921
920
1029
1030
1034
1033
344
345
288
287
294
293
1672
1673
997
996
1000
993
994
977
982
815
816
930
929
1022
1023
867
868
783
782
758
759
744
745
724
780
779
710
1203
1216
1215
1241
1240
1282
1283
1310
502
471
504
505
544
545
522
521
186
187
135
134
574
575
520
521
541
540
110
54
55
1363
1362
1375
1374
1597
1598
1073
1074
1087
1086
1232
1233
1070
1076
1156
1157
732
733
731
1258
1259
1261
1262
1263
1264
1264
1265
1163
1164
889
888
1320
1319
1299
1298
1274
1273
1266
1267
1268
1269
1174
1175
676
677
1276
1277
1275
1276
1274
1275
1271
1272
1283
1282
1326
1325
1296
1297
596
597
497
469
468
1524
1716
1717
486
485
118
117
1371
1372
1353
402
403
1518
1517
198
376
377
1607
1622
1621
115
116
1459
1460
1490
1491
100
484
1441
1440
1480
474
473
478
479
1418
1417
1406
1407
1693
1694
1604
1603
1621
270
1612
1618
1603
1604
1553
207
208
1554
1555
1564
1532
1533
1540
1541
1584
1583
1543
376
375
376
1536
1537
151
1503
1475
1476
1520
1521
1457
1458
1737
1736
1485
1484
1470
1438
1439
479
480
1423
1422
1823
1822
1810
1809
1816
1817
246
1603
1587
1550
208
1678
188
1520
1521
416
417
1537
1536
1466
1492
1491
1098
1097
1122
1121
890
889
951
952
938
939
1066
1065
1133
1134
1022
1023
915
916
914
915
987
986
1011
1012
286
285
885
931
1018
1019
928
929
951
952
808
807
781
809
810
764
763
770
769
781
782
745
770
771
738
737
1250
1251
1167
1168
737
742
741
742
748
730
729
1350
1349
1316
1315
1273
1272
1165
1166
1131
1132
728
783
711
710
676
1203
1202
1196
1195
1214
1213
1240
1234
1233
1317
1316
1242
1281
1309
1308
1410
1411
1404
1405
1420
1419
1426
1425
1353
1354
1340
1409
1408
1418
142
143
1428
1429
1420
1426
1427
1790
1789
1434
1448
480
481
475
476
1465
1466
1501
1706
1707
1751
1750
1430
487
486
1390
1391
1383
1382
1357
1356
1277
1276
1516
1526
1527
1617
1618
1563
1562
1597
1596
1544
255
1573
1572
1789
1545
1544
1686
1685
149
1490
1481
1480
452
453
1443
1442
1787
1786
1452
1415
1416
1429
1477
1476
1421
1415
1416
1411
1410
1409
1400
1401
1413
1407
1406
156
155
1809
1375
1376
1390
1389
1377
1378
1352
1353
1325
1326
1310
1311
1555
1556
349
348
204
205
1553
1554
1581
1580
1609
1610
320
321
1618
1617
1603
1602
1696
1695
1580
1579
1804
1803
1549
1637
1636
357
356
1546
1547
1576
1608
1607
1530
1531
1517
391
390
1685
1684
1510
400
401
1734
1735
1731
1732
1630
1629
1622
1621
1609
1608
1504
1503
1489
1490
423
424
1447
1446
1438
1439
1459
1460
1457
113
465
466
1451
1551
1426
1476
1475
1425
1438
1439
147
146
486
485
1375
1376
1429
1428
573
572
1368
1351
1349
1342
1343
610
611
1288
706
211
212
1609
1608
1616
1615
1604
1603
1576
1575
274
1605
1604
331
332
1800
1801
1573
1572
216
1540
1788
1789
1562
1563
1529
1526
1517
1516
1749
1750
1699
1619
1618
1491
1504
1505
117
118
1702
1701
111
1468
1469
1464
1463
1468
1469
1442
1441
1456
1309
1310
1450
1414
1415
257
258
1605
1606
898
897
900
901
887
886
1604
1603
258
259
954
955
1653
1654
1172
1173
1147
1146
928
927
1151
1150
1021
1020
854
853
853
852
1660
1659
291
292
221
222
220
221
221
222
1616
1617
956
955
1012
1613
1614
1661
1662
1660
1144
1143
1027
1026
1663
1662
1671
1672
1677
1678
1017
982
983
1001
998
999
976
975
826
825
976
975
980
979
1677
1678
1039
1038
1054
1053
972
973
985
984
824
823
993
994
971
972
956
957
1006
1007
900
901
813
814
952
951
817
818
951
950
1006
1007
1020
1019
803
804
816
817
871
872
929
928
800
801
927
928
929
943
942
818
817
782
781
781
782
828
827
773
771
770
772
773
800
799
768
767
785
786
1063
1062
746
747
1080
1081
1070
1092
1093
734
735
733
734
1088
1089
762
763
763
764
1118
1117
725
724
711
710
1177
708
707
886
887
1178
1176
1175
709
708
1205
1204
703
704
1203
1211
1212
703
704
713
714
670
669
1232
1231
907
908
1224
1223
1237
1236
649
648
1240
1239
1279
1280
1309
1308
1343
1342
1373
1372
1349
1348
560
561
506
507
540
539
1312
1313
113
114